1
	Energy:     777.2415899
Cl         4.56369        0.15530        0.82001
